<?xml version="1.0" encoding="UTF-8"?>

<!-- generated on 03/23/18 23:47:31 by SUMO Version 0.31.0
<?xml version="1.0" encoding="UTF-8"?>

<configuration xmlns:xsi="http://www.w3.org/2001/XMLSchema-instance" xsi:noNamespaceSchemaLocation="http://sumo.dlr.de/xsd/sumoConfiguration.xsd">

    <input>
        <net-file value="C:\Users\Bryan\Documents\GitHub\core\tests\WorkingExamples\CrossSamara/cross.net.xml"/>
        <route-files value="C:\Users\Bryan\Documents\GitHub\core\tests\WorkingExamples\CrossSamara/cross5.rou.xml"/>
    </input>

    <output>
        <tripinfo-output value="C:\Users\Bryan\Documents\GitHub\core\tests\WorkingExamples\CrossSamara/output/2018_03_23T23_47_30_927205/sutripinfo.xml"/>
    </output>

    <time>
        <begin value="0"/>
        <end value="20000"/>
    </time>

    <traci_server>
        <remote-port value="52294"/>
    </traci_server>

    <gui_only>
        <gui-settings-file value="C:\Users\Bryan\Documents\GitHub\core\tests\WorkingExamples\CrossSamara/cross.settings.xml"/>
    </gui_only>

</configuration>
-->

<tripinfos xmlns:xsi="http://www.w3.org/2001/XMLSchema-instance" xsi:noNamespaceSchemaLocation="http://sumo.dlr.de/xsd/tripinfo_file.xsd">
    <tripinfo id="h328c1:1" depart="103.00" departLane="2o_0" departPos="242.29" departSpeed="0.00" departDelay="0.00" arrival="203.00" arrivalLane="1o_0" arrivalPos="441.84" arrivalSpeed="0.07" duration="100.00" routeLength="1204.37" waitSteps="1" timeLoss="11.09" rerouteNo="0" devices="tripinfo_h328c1:1" vType="default" speedFactor="1.00" vaporized=""/>
</tripinfos>
