<?xml version="1.0" encoding="UTF-8"?>

<!-- generated on 4/4/2018 11:56:46 AM by SUMO gui Version 0.31.0
<?xml version="1.0" encoding="UTF-8"?>

<configuration xmlns:xsi="http://www.w3.org/2001/XMLSchema-instance" xsi:noNamespaceSchemaLocation="http://sumo.dlr.de/xsd/sumoConfiguration.xsd">

    <input>
        <net-file value="C:\Users\Bryan\Documents\GitHub\core\ts_core\excel_parser/cross.net.xml"/>
        <route-files value="C:\Users\Bryan\Documents\GitHub\core\ts_core\excel_parser/cross.rou.xml"/>
    </input>

    <output>
        <tripinfo-output value="C:\Users\Bryan\Documents\GitHub\core\ts_core\excel_parser/output/2018_04_04T11_56_45_889073/sutripinfo.xml"/>
    </output>

    <time>
        <begin value="0.0"/>
        <end value="3600.0"/>
    </time>

    <traci_server>
        <remote-port value="55954"/>
    </traci_server>

</configuration>
-->

<tripinfos xmlns:xsi="http://www.w3.org/2001/XMLSchema-instance" xsi:noNamespaceSchemaLocation="http://sumo.dlr.de/xsd/tripinfo_file.xsd">
    <tripinfo id="h91c1:1" depart="264.00" departLane="1o_0" departPos="446.37" departSpeed="0.00" departDelay="0.00" arrival="325.00" arrivalLane="3o_0" arrivalPos="466.81" arrivalSpeed="0.08" duration="61.00" routeLength="1025.26" waitSteps="1" timeLoss="9.71" rerouteNo="0" devices="tripinfo_h91c1:1" vType="default" speedFactor="1.00" vaporized=""/>
</tripinfos>
