<?xml version="1.0" encoding="UTF-8"?>

<!-- generated on 04/26/18 21:59:50 by SUMO Version 0.31.0
<?xml version="1.0" encoding="UTF-8"?>

<configuration xmlns:xsi="http://www.w3.org/2001/XMLSchema-instance" xsi:noNamespaceSchemaLocation="http://sumo.dlr.de/xsd/sumoConfiguration.xsd">

    <input>
        <net-file value="C:\Users\Bryan\Documents\GitHub\core\tests\WorkingExamples\CrossEilif/cross.net.xml"/>
        <route-files value="C:\Users\Bryan\Documents\GitHub\core\tests\WorkingExamples\CrossEilif/cross.rou.xml"/>
    </input>

    <output>
        <tripinfo-output value="C:\Users\Bryan\Documents\GitHub\core\tests\WorkingExamples\CrossEilif/output/2018_04_26T21_59_48_973932/sutripinfo.xml"/>
    </output>

    <time>
        <begin value="0.0"/>
        <end value="3600.0"/>
    </time>

    <traci_server>
        <remote-port value="51086"/>
    </traci_server>

</configuration>
-->

<tripinfos xmlns:xsi="http://www.w3.org/2001/XMLSchema-instance" xsi:noNamespaceSchemaLocation="http://sumo.dlr.de/xsd/tripinfo_file.xsd">
    <tripinfo id="h264c1:1" depart="272.00" departLane="3i_0" departPos="80.63" departSpeed="0.00" departDelay="0.00" arrival="330.00" arrivalLane="1i_2" arrivalPos="4.97" arrivalSpeed="0.10" duration="58.00" routeLength="929.16" waitSteps="0" timeLoss="11.51" rerouteNo="0" devices="tripinfo_h264c1:1" vType="default" speedFactor="1.00" vaporized=""/>
    <tripinfo id="h367c1:1" depart="316.00" departLane="3o_0" departPos="448.92" departSpeed="0.00" departDelay="0.00" arrival="388.00" arrivalLane="1o_1" arrivalPos="322.23" arrivalSpeed="0.08" duration="72.00" routeLength="878.13" waitSteps="12" timeLoss="28.05" rerouteNo="0" devices="tripinfo_h367c1:1" vType="default" speedFactor="1.00" vaporized=""/>
    <tripinfo id="h254c1:1" depart="279.00" departLane="3i_0" departPos="46.25" departSpeed="0.00" departDelay="0.00" arrival="392.00" arrivalLane="1o_0" arrivalPos="429.48" arrivalSpeed="0.27" duration="113.00" routeLength="894.58" waitSteps="50" timeLoss="68.22" rerouteNo="0" devices="tripinfo_h254c1:1" vType="default" speedFactor="1.00" vaporized=""/>
    <tripinfo id="h295c1:1" depart="309.00" departLane="3i_0" departPos="184.57" departSpeed="0.00" departDelay="0.00" arrival="392.00" arrivalLane="1i_2" arrivalPos="2.73" arrivalSpeed="3.12" duration="83.00" routeLength="822.98" waitSteps="27" timeLoss="41.80" rerouteNo="0" devices="tripinfo_h295c1:1" vType="default" speedFactor="1.00" vaporized=""/>
    <tripinfo id="h70c2:1" depart="287.00" departLane="1o_0" departPos="371.97" departSpeed="0.00" departDelay="0.00" arrival="393.00" arrivalLane="3i_2" arrivalPos="9.59" arrivalSpeed="0.26" duration="106.00" routeLength="1135.91" waitSteps="33" timeLoss="49.15" rerouteNo="0" devices="tripinfo_h70c2:1" vType="default" speedFactor="1.00" vaporized=""/>
    <tripinfo id="h336c2:1" depart="277.00" departLane="3o_0" departPos="453.46" departSpeed="0.00" departDelay="0.00" arrival="399.00" arrivalLane="1i_2" arrivalPos="64.64" arrivalSpeed="4.13" duration="122.00" routeLength="1109.47" waitSteps="49" timeLoss="66.48" rerouteNo="0" devices="tripinfo_h336c2:1" vType="default" speedFactor="1.00" vaporized=""/>
    <tripinfo id="carIn40:1" depart="341.00" departLane="3i_0" departPos="243.00" departSpeed="0.00" departDelay="0.00" arrival="399.00" arrivalLane="1i_2" arrivalPos="30.81" arrivalSpeed="2.80" duration="58.00" routeLength="792.63" waitSteps="0" timeLoss="18.34" rerouteNo="0" devices="tripinfo_carIn40:1" vType="default" speedFactor="1.00" vaporized=""/>
    <tripinfo id="carIn30:1" depart="356.00" departLane="3i_0" departPos="243.00" departSpeed="0.00" departDelay="0.00" arrival="401.00" arrivalLane="1o_2" arrivalPos="417.64" arrivalSpeed="0.10" duration="45.00" routeLength="685.99" waitSteps="0" timeLoss="10.68" rerouteNo="0" devices="tripinfo_carIn30:1" vType="default" speedFactor="1.00" vaporized=""/>
    <tripinfo id="h63c2:1" depart="272.00" departLane="1i_0" departPos="27.65" departSpeed="0.00" departDelay="0.00" arrival="404.00" arrivalLane="3i_2" arrivalPos="57.48" arrivalSpeed="0.11" duration="132.00" routeLength="1034.65" waitSteps="55" timeLoss="80.21" rerouteNo="0" devices="tripinfo_h63c2:1" vType="default" speedFactor="1.00" vaporized=""/>
    <tripinfo id="carIn86:1" depart="341.00" departLane="1i_0" departPos="243.00" departSpeed="0.00" departDelay="0.00" arrival="407.00" arrivalLane="3i_2" arrivalPos="28.60" arrivalSpeed="0.19" duration="66.00" routeLength="790.42" waitSteps="0" timeLoss="26.45" rerouteNo="0" devices="tripinfo_carIn86:1" vType="default" speedFactor="1.00" vaporized=""/>
    <tripinfo id="h103c2:1" depart="313.00" departLane="1o_0" departPos="480.14" departSpeed="0.00" departDelay="0.00" arrival="410.00" arrivalLane="3i_2" arrivalPos="188.38" arrivalSpeed="0.10" duration="97.00" routeLength="1206.53" waitSteps="14" timeLoss="36.63" rerouteNo="0" devices="tripinfo_h103c2:1" vType="default" speedFactor="1.00" vaporized=""/>
    <tripinfo id="h334c1:1" depart="325.00" departLane="3o_0" departPos="418.65" departSpeed="0.00" departDelay="0.00" arrival="411.00" arrivalLane="1i_2" arrivalPos="159.03" arrivalSpeed="0.09" duration="86.00" routeLength="1238.67" waitSteps="2" timeLoss="24.03" rerouteNo="0" devices="tripinfo_h334c1:1" vType="default" speedFactor="1.00" vaporized=""/>
    <tripinfo id="h34c1:1" depart="331.00" departLane="1i_0" departPos="175.44" departSpeed="0.00" departDelay="0.00" arrival="414.00" arrivalLane="3i_0" arrivalPos="69.16" arrivalSpeed="0.10" duration="83.00" routeLength="898.54" waitSteps="5" timeLoss="38.03" rerouteNo="0" devices="tripinfo_h34c1:1" vType="default" speedFactor="1.00" vaporized=""/>
    <tripinfo id="h60c1:1" depart="362.00" departLane="1i_0" departPos="9.59" departSpeed="0.00" departDelay="0.00" arrival="421.00" arrivalLane="2o_1" arrivalPos="435.26" arrivalSpeed="0.52" duration="59.00" routeLength="935.29" waitSteps="0" timeLoss="12.21" rerouteNo="0" devices="tripinfo_h60c1:1" vType="default" speedFactor="1.00" vaporized=""/>
    <tripinfo id="h11c1:1" depart="371.00" departLane="1i_0" departPos="273.20" departSpeed="0.00" departDelay="0.00" arrival="421.00" arrivalLane="3i_2" arrivalPos="82.37" arrivalSpeed="0.10" duration="50.00" routeLength="813.99" waitSteps="1" timeLoss="9.28" rerouteNo="0" devices="tripinfo_h11c1:1" vType="default" speedFactor="1.00" vaporized=""/>
    <tripinfo id="h103c1:1" depart="333.00" departLane="1o_0" departPos="480.14" departSpeed="0.00" departDelay="0.00" arrival="421.00" arrivalLane="3i_1" arrivalPos="243.00" arrivalSpeed="1.12" duration="88.00" routeLength="1261.15" waitSteps="0" timeLoss="24.90" rerouteNo="0" devices="tripinfo_h103c1:1" vType="default" speedFactor="1.00" vaporized=""/>
