<?xml version="1.0" encoding="UTF-8"?>

<!-- generated on 4/4/2018 11:59:00 AM by SUMO gui Version 0.31.0
<?xml version="1.0" encoding="UTF-8"?>

<configuration xmlns:xsi="http://www.w3.org/2001/XMLSchema-instance" xsi:noNamespaceSchemaLocation="http://sumo.dlr.de/xsd/sumoConfiguration.xsd">

    <input>
        <net-file value="C:\Users\Bryan\Documents\GitHub\core\ts_core\excel_parser/cross.net.xml"/>
        <route-files value="C:\Users\Bryan\Documents\GitHub\core\ts_core\excel_parser/cross.rou.xml"/>
    </input>

    <output>
        <tripinfo-output value="C:\Users\Bryan\Documents\GitHub\core\ts_core\excel_parser/output/2018_04_04T11_59_00_280212/sutripinfo.xml"/>
    </output>

    <time>
        <begin value="0.0"/>
        <end value="3600.0"/>
    </time>

    <traci_server>
        <remote-port value="55968"/>
    </traci_server>

</configuration>
-->

<tripinfos xmlns:xsi="http://www.w3.org/2001/XMLSchema-instance" xsi:noNamespaceSchemaLocation="http://sumo.dlr.de/xsd/tripinfo_file.xsd">
    <tripinfo id="h91c1:1" depart="264.00" departLane="1o_0" departPos="446.37" departSpeed="0.00" departDelay="0.00" arrival="325.00" arrivalLane="3o_0" arrivalPos="466.81" arrivalSpeed="0.08" duration="61.00" routeLength="1025.26" waitSteps="1" timeLoss="9.71" rerouteNo="0" devices="tripinfo_h91c1:1" vType="default" speedFactor="1.00" vaporized=""/>
    <tripinfo id="h41c1:1" depart="312.00" departLane="1i_0" departPos="92.00" departSpeed="0.00" departDelay="0.00" arrival="388.00" arrivalLane="3o_0" arrivalPos="387.48" arrivalSpeed="0.08" duration="76.00" routeLength="806.83" waitSteps="20" timeLoss="35.61" rerouteNo="0" devices="tripinfo_h41c1:1" vType="default" speedFactor="1.00" vaporized=""/>
    <tripinfo id="h15c1:1" depart="330.00" departLane="1i_0" departPos="168.72" departSpeed="0.00" departDelay="0.00" arrival="390.00" arrivalLane="3o_1" arrivalPos="414.03" arrivalSpeed="0.08" duration="60.00" routeLength="756.66" waitSteps="6" timeLoss="22.14" rerouteNo="0" devices="tripinfo_h15c1:1" vType="default" speedFactor="1.00" vaporized=""/>
    <tripinfo id="h337c1:1" depart="324.00" departLane="3o_0" departPos="308.01" departSpeed="0.00" departDelay="0.00" arrival="391.00" arrivalLane="1o_0" arrivalPos="443.67" arrivalSpeed="0.30" duration="67.00" routeLength="1140.48" waitSteps="0" timeLoss="9.95" rerouteNo="0" devices="tripinfo_h337c1:1" vType="default" speedFactor="1.00" vaporized=""/>
    <tripinfo id="carIn80:1" depart="348.00" departLane="1i_0" departPos="243.00" departSpeed="0.00" departDelay="0.00" arrival="394.00" arrivalLane="3o_2" arrivalPos="438.54" arrivalSpeed="0.07" duration="46.00" routeLength="706.89" waitSteps="1" timeLoss="10.64" rerouteNo="0" devices="tripinfo_carIn80:1" vType="default" speedFactor="1.00" vaporized=""/>
    <tripinfo id="h359c2:1" depart="336.00" departLane="3o_0" departPos="371.78" departSpeed="0.00" departDelay="0.00" arrival="394.00" arrivalLane="1o_0" arrivalPos="346.14" arrivalSpeed="0.70" duration="58.00" routeLength="979.18" waitSteps="0" timeLoss="9.02" rerouteNo="0" devices="tripinfo_h359c2:1" vType="default" speedFactor="1.00" vaporized=""/>
    <tripinfo id="h55c1:1" depart="355.00" departLane="1i_0" departPos="242.94" departSpeed="0.00" departDelay="0.00" arrival="397.00" arrivalLane="3o_2" arrivalPos="420.71" arrivalSpeed="1.26" duration="42.00" routeLength="689.12" waitSteps="0" timeLoss="7.53" rerouteNo="0" devices="tripinfo_h55c1:1" vType="default" speedFactor="1.00" vaporized=""/>
    <tripinfo id="carIn171:1" depart="348.00" departLane="3i_0" departPos="243.00" departSpeed="0.00" departDelay="0.00" arrival="398.00" arrivalLane="1i_1" arrivalPos="49.82" arrivalSpeed="0.18" duration="50.00" routeLength="811.64" waitSteps="0" timeLoss="9.39" rerouteNo="0" devices="tripinfo_carIn171:1" vType="default" speedFactor="1.00" vaporized=""/>
    <tripinfo id="h276c1:1" depart="332.00" departLane="3i_0" departPos="188.82" departSpeed="0.00" departDelay="0.00" arrival="398.00" arrivalLane="1i_2" arrivalPos="59.63" arrivalSpeed="0.13" duration="66.00" routeLength="875.63" waitSteps="3" timeLoss="22.19" rerouteNo="0" devices="tripinfo_h276c1:1" vType="default" speedFactor="1.00" vaporized=""/>
    <tripinfo id="h14c1:1" depart="366.00" departLane="1i_0" departPos="238.81" departSpeed="0.00" departDelay="0.00" arrival="408.00" arrivalLane="3o_2" arrivalPos="387.27" arrivalSpeed="0.19" duration="42.00" routeLength="659.81" waitSteps="0" timeLoss="8.99" rerouteNo="0" devices="tripinfo_h14c1:1" vType="default" speedFactor="1.00" vaporized=""/>
    <tripinfo id="h2c1:1" depart="367.00" departLane="1i_0" departPos="337.76" departSpeed="0.00" departDelay="0.00" arrival="410.00" arrivalLane="3i_2" arrivalPos="5.23" arrivalSpeed="0.10" duration="43.00" routeLength="672.29" waitSteps="0" timeLoss="9.37" rerouteNo="0" devices="tripinfo_h2c1:1" vType="default" speedFactor="1.00" vaporized=""/>
    <tripinfo id="carIn129:1" depart="359.00" departLane="3i_0" departPos="243.00" departSpeed="0.00" departDelay="0.00" arrival="412.00" arrivalLane="1i_2" arrivalPos="78.73" arrivalSpeed="0.10" duration="53.00" routeLength="840.55" waitSteps="0" timeLoss="10.95" rerouteNo="0" devices="tripinfo_carIn129:1" vType="default" speedFactor="1.00" vaporized=""/>
    <tripinfo id="h83c1:1" depart="354.00" departLane="1o_0" departPos="484.28" departSpeed="0.00" departDelay="0.00" arrival="413.00" arrivalLane="4o_2" arrivalPos="461.55" arrivalSpeed="0.79" duration="59.00" routeLength="964.39" waitSteps="0" timeLoss="10.75" rerouteNo="0" devices="tripinfo_h83c1:1" vType="default" speedFactor="1.00" vaporized=""/>
    <tripinfo id="h284c1:1" depart="353.00" departLane="3i_0" departPos="63.10" departSpeed="0.00" departDelay="0.00" arrival="428.00" arrivalLane="1i_2" arrivalPos="243.00" arrivalSpeed="0.17" duration="75.00" routeLength="1184.72" waitSteps="0" timeLoss="15.73" rerouteNo="0" devices="tripinfo_h284c1:1" vType="default" speedFactor="1.00" vaporized=""/>
    <tripinfo id="carIn17:1" depart="380.00" departLane="2i_0" departPos="243.00" departSpeed="0.00" departDelay="0.00" arrival="434.00" arrivalLane="4o_0" arrivalPos="352.24" arrivalSpeed="0.18" duration="54.00" routeLength="620.59" waitSteps="3" timeLoss="22.95" rerouteNo="0" devices="tripinfo_carIn17:1" vType="default" speedFactor="1.00" vaporized=""/>
    <tripinfo id="carIn107:1" depart="399.00" departLane="4i_0" departPos="243.00" departSpeed="0.00" departDelay="0.00" arrival="436.00" arrivalLane="2o_0" arrivalPos="302.65" arrivalSpeed="3.74" duration="37.00" routeLength="571.00" waitSteps="0" timeLoss="8.43" rerouteNo="0" devices="tripinfo_carIn107:1" vType="default" speedFactor="1.00" vaporized=""/>
    <tripinfo id="h406c1:1" depart="388.00" departLane="4i_0" departPos="178.37" departSpeed="0.00" departDelay="0.00" arrival="437.00" arrivalLane="3i_2" arrivalPos="1.44" arrivalSpeed="0.52" duration="49.00" routeLength="810.19" waitSteps="0" timeLoss="8.47" rerouteNo="0" devices="tripinfo_h406c1:1" vType="default" speedFactor="1.00" vaporized=""/>
    <tripinfo id="carIn44:1" depart="340.00" departLane="2i_0" departPos="243.00" departSpeed="0.00" departDelay="0.00" arrival="439.00" arrivalLane="4i_2" arrivalPos="26.87" arrivalSpeed="0.17" duration="99.00" routeLength="788.69" waitSteps="42" timeLoss="59.53" rerouteNo="0" devices="tripinfo_carIn44:1" vType="default" speedFactor="1.00" vaporized=""/>
    <tripinfo id="h245c1:1" depart="367.00" departLane="2o_0" departPos="405.01" departSpeed="0.00" departDelay="0.00" arrival="440.00" arrivalLane="1i_2" arrivalPos="2.47" arrivalSpeed="0.09" duration="73.00" routeLength="1078.05" waitSteps="1" timeLoss="19.06" rerouteNo="0" devices="tripinfo_h245c1:1" vType="default" speedFactor="1.00" vaporized=""/>
    <tripinfo id="h174c1:1" depart="362.00" departLane="2i_0" departPos="36.69" departSpeed="0.00" departDelay="0.00" arrival="441.00" arrivalLane="3o_2" arrivalPos="463.53" arrivalSpeed="0.64" duration="79.00" routeLength="936.46" waitSteps="13" timeLoss="32.14" rerouteNo="0" devices="tripinfo_h174c1:1" vType="default" speedFactor="1.00" vaporized=""/>
    <tripinfo id="h141c1:1" depart="388.00" departLane="2i_0" departPos="87.42" departSpeed="0.00" departDelay="0.00" arrival="441.00" arrivalLane="3o_2" arrivalPos="414.29" arrivalSpeed="0.24" duration="53.00" routeLength="836.49" waitSteps="0" timeLoss="11.15" rerouteNo="0" devices="tripinfo_h141c1:1" vType="default" speedFactor="1.00" vaporized=""/>
    <tripinfo id="carIn52:1" depart="354.00" departLane="4i_0" departPos="243.00" departSpeed="0.00" departDelay="0.00" arrival="442.00" arrivalLane="2i_2" arrivalPos="63.79" arrivalSpeed="0.32" duration="88.00" routeLength="825.61" waitSteps="27" timeLoss="46.68" rerouteNo="0" devices="tripinfo_carIn52:1" vType="default" speedFactor="1.00" vaporized=""/>
    <tripinfo id="carIn18:1" depart="400.00" departLane="2i_0" departPos="243.00" departSpeed="0.00" departDelay="0.00" arrival="450.00" arrivalLane="1o_1" arrivalPos="484.92" arrivalSpeed="0.06" duration="50.00" routeLength="735.57" waitSteps="1" timeLoss="13.20" rerouteNo="0" devices="tripinfo_carIn18:1" vType="default" speedFactor="1.00" vaporized=""/>
    <tripinfo id="carIn150:1" depart="392.00" departLane="2i_0" departPos="243.00" departSpeed="0.00" departDelay="0.00" arrival="453.00" arrivalLane="4i_1" arrivalPos="168.45" arrivalSpeed="0.16" duration="61.00" routeLength="930.27" waitSteps="0" timeLoss="14.46" rerouteNo="0" devices="tripinfo_carIn150:1" vType="default" speedFactor="1.00" vaporized=""/>
    <tripinfo id="carIn195:1" depart="403.00" departLane="4i_0" departPos="243.00" departSpeed="0.00" departDelay="0.00" arrival="456.00" arrivalLane="3i_2" arrivalPos="12.33" arrivalSpeed="0.33" duration="53.00" routeLength="756.45" waitSteps="0" timeLoss="15.15" rerouteNo="0" devices="tripinfo_carIn195:1" vType="default" speedFactor="1.00" vaporized=""/>
    <tripinfo id="h165c1:1" depart="389.00" departLane="2i_0" departPos="82.45" departSpeed="0.00" departDelay="1.00" arrival="457.00" arrivalLane="1i_2" arrivalPos="80.12" arrivalSpeed="0.16" duration="68.00" routeLength="984.79" waitSteps="1" timeLoss="18.73" rerouteNo="0" devices="tripinfo_h165c1:1" vType="default" speedFactor="1.00" vaporized=""/>
    <tripinfo id="h438c1:1" depart="423.00" departLane="4i_0" departPos="481.55" departSpeed="0.00" departDelay="0.00" arrival="459.00" arrivalLane="3i_2" arrivalPos="5.83" arrivalSpeed="0.40" duration="36.00" routeLength="511.40" waitSteps="0" timeLoss="10.41" rerouteNo="0" devices="tripinfo_h438c1:1" vType="default" speedFactor="1.00" vaporized=""/>
    <tripinfo id="h189c1:1" depart="423.00" departLane="2i_0" departPos="473.26" departSpeed="0.00" departDelay="0.00" arrival="461.00" arrivalLane="1i_2" arrivalPos="6.57" arrivalSpeed="0.57" duration="38.00" routeLength="520.43" waitSteps="0" timeLoss="11.96" rerouteNo="0" devices="tripinfo_h189c1:1" vType="default" speedFactor="1.00" vaporized=""/>
    <tripinfo id="h280c2:1" depart="382.00" departLane="3i_0" departPos="54.87" departSpeed="0.00" departDelay="0.00" arrival="465.00" arrivalLane="1o_1" arrivalPos="159.26" arrivalSpeed="0.59" duration="83.00" routeLength="615.74" waitSteps="36" timeLoss="52.18" rerouteNo="0" devices="tripinfo_h280c2:1" vType="default" speedFactor="1.00" vaporized=""/>
    <tripinfo id="carIn163:1" depart="422.00" departLane="2i_0" departPos="243.00" departSpeed="0.00" departDelay="3.00" arrival="465.00" arrivalLane="3o_2" arrivalPos="426.43" arrivalSpeed="0.82" duration="43.00" routeLength="693.05" waitSteps="0" timeLoss="8.33" rerouteNo="0" devices="tripinfo_carIn163:1" vType="default" speedFactor="1.00" vaporized=""/>
    <tripinfo id="carIn126:1" depart="410.00" departLane="4i_0" departPos="243.00" departSpeed="0.00" departDelay="0.00" arrival="467.00" arrivalLane="1i_2" arrivalPos="33.67" arrivalSpeed="1.12" duration="57.00" routeLength="793.76" waitSteps="0" timeLoss="17.29" rerouteNo="0" devices="tripinfo_carIn126:1" vType="default" speedFactor="1.00" vaporized=""/>
    <tripinfo id="h429c1:1" depart="429.00" departLane="4i_0" departPos="482.14" departSpeed="0.00" departDelay="0.00" arrival="467.00" arrivalLane="3i_2" arrivalPos="22.80" arrivalSpeed="0.44" duration="38.00" routeLength="527.78" waitSteps="0" timeLoss="11.59" rerouteNo="0" devices="tripinfo_h429c1:1" vType="default" speedFactor="1.00" vaporized=""/>
    <tripinfo id="h349c1:1" depart="437.00" departLane="3o_0" departPos="10.74" departSpeed="0.00" departDelay="0.00" arrival="468.00" arrivalLane="3o_0" arrivalPos="453.45" arrivalSpeed="0.36" duration="31.00" routeLength="442.71" waitSteps="0" timeLoss="8.85" rerouteNo="0" devices="tripinfo_h349c1:1" vType="default" speedFactor="1.00" vaporized=""/>
    <tripinfo id="h474c1:1" depart="396.00" departLane="4o_0" departPos="317.94" departSpeed="0.00" departDelay="0.00" arrival="470.00" arrivalLane="1o_1" arrivalPos="456.22" arrivalSpeed="0.34" duration="74.00" routeLength="1141.37" waitSteps="0" timeLoss="16.90" rerouteNo="0" devices="tripinfo_h474c1:1" vType="default" speedFactor="1.00" vaporized=""/>
    <tripinfo id="h137c1:1" depart="416.00" departLane="2i_0" departPos="302.87" departSpeed="0.00" departDelay="0.00" arrival="470.00" arrivalLane="3i_2" arrivalPos="22.39" arrivalSpeed="0.14" duration="54.00" routeLength="722.61" waitSteps="0" timeLoss="17.85" rerouteNo="0" devices="tripinfo_h137c1:1" vType="default" speedFactor="1.00" vaporized=""/>
    <tripinfo id="h322c1:1" depart="358.00" departLane="3o_0" departPos="408.31" departSpeed="0.00" departDelay="0.00" arrival="471.00" arrivalLane="1o_0" arrivalPos="249.86" arrivalSpeed="2.45" duration="113.00" routeLength="846.37" waitSteps="54" timeLoss="70.63" rerouteNo="0" devices="tripinfo_h322c1:1" vType="default" speedFactor="1.00" vaporized=""/>
    <tripinfo id="h261c1:1" depart="399.00" departLane="3i_0" departPos="92.94" departSpeed="0.00" departDelay="0.00" arrival="472.00" arrivalLane="1o_1" arrivalPos="150.28" arrivalSpeed="0.12" duration="73.00" routeLength="568.69" waitSteps="22" timeLoss="44.53" rerouteNo="0" devices="tripinfo_h261c1:1" vType="default" speedFactor="1.00" vaporized=""/>
    <tripinfo id="h136c1:1" depart="397.00" departLane="2i_0" departPos="90.55" departSpeed="0.00" departDelay="0.00" arrival="472.00" arrivalLane="3i_2" arrivalPos="104.73" arrivalSpeed="0.09" duration="75.00" routeLength="1017.27" waitSteps="2" timeLoss="24.10" rerouteNo="0" devices="tripinfo_h136c1:1" vType="default" speedFactor="1.00" vaporized=""/>
    <tripinfo id="h429c2:1" depart="426.00" departLane="4i_0" departPos="482.14" departSpeed="0.00" departDelay="0.00" arrival="474.00" arrivalLane="1i_2" arrivalPos="15.19" arrivalSpeed="0.62" duration="48.00" routeLength="536.14" waitSteps="3" timeLoss="21.17" rerouteNo="0" devices="tripinfo_h429c2:1" vType="default" speedFactor="1.00" vaporized=""/>
    <tripinfo id="h282c1:1" depart="437.00" departLane="3i_0" departPos="89.25" departSpeed="0.00" departDelay="0.00" arrival="476.00" arrivalLane="1o_1" arrivalPos="45.72" arrivalSpeed="0.12" duration="39.00" routeLength="467.82" waitSteps="0" timeLoss="15.59" rerouteNo="0" devices="tripinfo_h282c1:1" vType="default" speedFactor="1.00" vaporized=""/>
    <tripinfo id="carIn156:1" depart="408.00" departLane="3i_0" departPos="243.00" departSpeed="0.00" departDelay="0.00" arrival="477.00" arrivalLane="1o_1" arrivalPos="277.06" arrivalSpeed="0.09" duration="69.00" routeLength="545.41" waitSteps="24" timeLoss="41.69" rerouteNo="0" devices="tripinfo_carIn156:1" vType="default" speedFactor="1.00" vaporized=""/>
    <tripinfo id="h121c1:1" depart="404.00" departLane="1o_0" departPos="484.50" departSpeed="0.00" departDelay="0.00" arrival="478.00" arrivalLane="4o_0" arrivalPos="220.34" arrivalSpeed="0.15" duration="74.00" routeLength="722.96" waitSteps="16" timeLoss="37.81" rerouteNo="0" devices="tripinfo_h121c1:1" vType="default" speedFactor="1.00" vaporized=""/>
    <tripinfo id="h262c1:1" depart="434.00" departLane="3i_0" departPos="50.82" departSpeed="0.00" departDelay="0.00" arrival="478.00" arrivalLane="2o_0" arrivalPos="117.13" arrivalSpeed="0.58" duration="44.00" routeLength="559.96" waitSteps="0" timeLoss="15.98" rerouteNo="0" devices="tripinfo_h262c1:1" vType="default" speedFactor="1.00" vaporized=""/>
    <tripinfo id="h260c1:1" depart="416.00" departLane="3i_0" departPos="148.86" departSpeed="0.00" departDelay="0.00" arrival="479.00" arrivalLane="1o_0" arrivalPos="161.93" arrivalSpeed="0.15" duration="63.00" routeLength="524.42" waitSteps="12" timeLoss="36.74" rerouteNo="0" devices="tripinfo_h260c1:1" vType="default" speedFactor="1.00" vaporized=""/>
    <tripinfo id="carIn143:1" depart="390.00" departLane="1i_0" departPos="243.00" departSpeed="0.00" departDelay="4.00" arrival="479.00" arrivalLane="3o_1" arrivalPos="336.94" arrivalSpeed="0.50" duration="89.00" routeLength="605.29" waitSteps="36" timeLoss="58.70" rerouteNo="0" devices="tripinfo_carIn143:1" vType="default" speedFactor="1.00" vaporized=""/>
    <tripinfo id="carIn96:1" depart="407.00" departLane="1i_0" departPos="243.00" departSpeed="0.00" departDelay="0.00" arrival="480.00" arrivalLane="3o_0" arrivalPos="278.67" arrivalSpeed="0.10" duration="73.00" routeLength="547.02" waitSteps="26" timeLoss="45.61" rerouteNo="0" devices="tripinfo_carIn96:1" vType="default" speedFactor="1.00" vaporized=""/>
    <tripinfo id="h90c1:1" depart="406.00" departLane="1o_0" departPos="351.43" departSpeed="0.00" departDelay="0.00" arrival="481.00" arrivalLane="3o_1" arrivalPos="177.24" arrivalSpeed="0.09" duration="75.00" routeLength="830.63" waitSteps="4" timeLoss="33.43" rerouteNo="0" devices="tripinfo_h90c1:1" vType="default" speedFactor="1.00" vaporized=""/>
    <tripinfo id="h161c1:1" depart="410.00" departLane="2i_0" departPos="113.46" departSpeed="0.00" departDelay="0.00" arrival="481.00" arrivalLane="1i_2" arrivalPos="133.46" arrivalSpeed="0.28" duration="71.00" routeLength="1007.12" waitSteps="0" timeLoss="20.61" rerouteNo="0" devices="tripinfo_h161c1:1" vType="default" speedFactor="1.00" vaporized=""/>
    <tripinfo id="carIn95:1" depart="404.00" departLane="1i_0" departPos="243.00" departSpeed="0.00" departDelay="10.00" arrival="482.00" arrivalLane="3o_2" arrivalPos="315.17" arrivalSpeed="0.12" duration="78.00" routeLength="583.52" waitSteps="30" timeLoss="48.78" rerouteNo="0" devices="tripinfo_carIn95:1" vType="default" speedFactor="1.00" vaporized=""/>
    <tripinfo id="h295c1:1" depart="402.00" departLane="3i_0" departPos="95.36" departSpeed="0.00" departDelay="1.00" arrival="483.00" arrivalLane="2o_1" arrivalPos="371.40" arrivalSpeed="0.10" duration="81.00" routeLength="769.69" waitSteps="23" timeLoss="42.47" rerouteNo="0" devices="tripinfo_h295c1:1" vType="default" speedFactor="1.00" vaporized=""/>
    <tripinfo id="h68c1:1" depart="402.00" departLane="1i_0" departPos="284.81" departSpeed="0.00" departDelay="10.00" arrival="483.00" arrivalLane="3o_0" arrivalPos="361.45" arrivalSpeed="0.19" duration="81.00" routeLength="587.99" waitSteps="32" timeLoss="51.56" rerouteNo="0" devices="tripinfo_h68c1:1" vType="default" speedFactor="1.00" vaporized=""/>
    <tripinfo id="h321c1:1" depart="383.00" departLane="3o_0" departPos="434.28" departSpeed="0.00" departDelay="0.00" arrival="483.00" arrivalLane="2o_0" arrivalPos="399.24" arrivalSpeed="0.11" duration="100.00" routeLength="952.08" waitSteps="32" timeLoss="52.34" rerouteNo="0" devices="tripinfo_h321c1:1" vType="default" speedFactor="1.00" vaporized=""/>
    <tripinfo id="h94c1:1" depart="430.00" departLane="1o_0" departPos="431.47" departSpeed="0.00" departDelay="0.00" arrival="485.00" arrivalLane="4o_0" arrivalPos="165.72" arrivalSpeed="0.10" duration="55.00" routeLength="721.37" waitSteps="1" timeLoss="18.91" rerouteNo="0" devices="tripinfo_h94c1:1" vType="default" speedFactor="1.00" vaporized=""/>
    <tripinfo id="h283c1:1" depart="436.00" departLane="3i_0" departPos="146.42" departSpeed="0.00" departDelay="0.00" arrival="486.00" arrivalLane="2o_1" arrivalPos="285.07" arrivalSpeed="0.26" duration="50.00" routeLength="632.30" waitSteps="0" timeLoss="18.36" rerouteNo="0" devices="tripinfo_h283c1:1" vType="default" speedFactor="1.00" vaporized=""/>
    <tripinfo id="h330c1:1" depart="401.00" departLane="3o_0" departPos="412.31" departSpeed="0.00" departDelay="0.00" arrival="486.00" arrivalLane="1o_1" arrivalPos="129.17" arrivalSpeed="0.17" duration="85.00" routeLength="721.68" waitSteps="19" timeLoss="48.87" rerouteNo="0" devices="tripinfo_h330c1:1" vType="default" speedFactor="1.00" vaporized=""/>
    <tripinfo id="carIn83:1" depart="416.00" departLane="1i_0" departPos="243.00" departSpeed="0.00" departDelay="6.00" arrival="487.00" arrivalLane="4o_1" arrivalPos="454.62" arrivalSpeed="3.05" duration="71.00" routeLength="705.27" waitSteps="17" timeLoss="35.70" rerouteNo="0" devices="tripinfo_carIn83:1" vType="default" speedFactor="1.00" vaporized=""/>
    <tripinfo id="carIn100:1" depart="435.00" departLane="3i_0" departPos="243.00" departSpeed="0.00" departDelay="0.00" arrival="488.00" arrivalLane="2o_1" arrivalPos="377.50" arrivalSpeed="0.89" duration="53.00" routeLength="628.15" waitSteps="2" timeLoss="21.57" rerouteNo="0" devices="tripinfo_carIn100:1" vType="default" speedFactor="1.00" vaporized=""/>
    <tripinfo id="h33c1:1" depart="396.00" departLane="1i_0" departPos="177.31" departSpeed="0.00" departDelay="6.00" arrival="488.00" arrivalLane="4o_0" arrivalPos="479.01" arrivalSpeed="0.11" duration="92.00" routeLength="795.35" waitSteps="30" timeLoss="52.19" rerouteNo="0" devices="tripinfo_h33c1:1" vType="default" speedFactor="1.00" vaporized=""/>
    <tripinfo id="h81c1:1" depart="427.00" departLane="1o_0" departPos="379.21" departSpeed="0.00" departDelay="0.00" arrival="488.00" arrivalLane="3o_1" arrivalPos="91.62" arrivalSpeed="0.50" duration="61.00" routeLength="717.23" waitSteps="0" timeLoss="25.11" rerouteNo="0" devices="tripinfo_h81c1:1" vType="default" speedFactor="1.00" vaporized=""/>
    <tripinfo id="h358c1:1" depart="433.00" departLane="3o_0" departPos="382.79" departSpeed="0.00" departDelay="1.00" arrival="489.00" arrivalLane="1o_0" arrivalPos="75.02" arrivalSpeed="0.11" duration="56.00" routeLength="697.05" waitSteps="0" timeLoss="21.12" rerouteNo="0" devices="tripinfo_h358c1:1" vType="default" speedFactor="1.00" vaporized=""/>
    <tripinfo id="carIn116:1" depart="400.00" departLane="3i_0" departPos="243.00" departSpeed="0.00" departDelay="0.00" arrival="489.00" arrivalLane="2i_2" arrivalPos="1.67" arrivalSpeed="0.11" duration="89.00" routeLength="745.79" waitSteps="31" timeLoss="51.65" rerouteNo="0" devices="tripinfo_carIn116:1" vType="default" speedFactor="1.00" vaporized=""/>
    <tripinfo id="h72c1:1" depart="353.00" departLane="1o_0" departPos="211.45" departSpeed="0.00" departDelay="0.00" arrival="489.00" arrivalLane="3i_2" arrivalPos="27.65" arrivalSpeed="0.35" duration="136.00" routeLength="1314.49" waitSteps="48" timeLoss="70.22" rerouteNo="0" devices="tripinfo_h72c1:1" vType="default" speedFactor="1.00" vaporized=""/>
    <tripinfo id="carIn67:1" depart="437.00" departLane="1i_0" departPos="243.00" departSpeed="0.00" departDelay="14.00" arrival="490.00" arrivalLane="3o_1" arrivalPos="237.47" arrivalSpeed="0.31" duration="53.00" routeLength="505.82" waitSteps="6" timeLoss="27.69" rerouteNo="0" devices="tripinfo_carIn67:1" vType="default" speedFactor="1.00" vaporized=""/>
    <tripinfo id="h65c1:1" depart="427.00" departLane="1i_0" departPos="166.99" departSpeed="0.00" departDelay="9.00" arrival="491.00" arrivalLane="4o_1" arrivalPos="376.81" arrivalSpeed="0.16" duration="64.00" routeLength="703.47" waitSteps="7" timeLoss="28.79" rerouteNo="0" devices="tripinfo_h65c1:1" vType="default" speedFactor="1.00" vaporized=""/>
    <tripinfo id="h317c1:1" depart="426.00" departLane="3i_0" departPos="345.67" departSpeed="0.00" departDelay="2.00" arrival="492.00" arrivalLane="1o_0" arrivalPos="336.47" arrivalSpeed="0.31" duration="66.00" routeLength="502.15" waitSteps="12" timeLoss="40.86" rerouteNo="0" devices="tripinfo_h317c1:1" vType="default" speedFactor="1.00" vaporized=""/>
    <tripinfo id="h52c1:1" depart="380.00" departLane="1i_0" departPos="7.88" departSpeed="0.00" departDelay="0.00" arrival="492.00" arrivalLane="4i_2" arrivalPos="132.62" arrivalSpeed="0.18" duration="112.00" routeLength="1111.86" waitSteps="38" timeLoss="56.36" rerouteNo="0" devices="tripinfo_h52c1:1" vType="default" speedFactor="1.00" vaporized=""/>
    <tripinfo id="carIn53:1" depart="397.00" departLane="3i_0" departPos="243.00" departSpeed="0.00" departDelay="2.00" arrival="494.00" arrivalLane="1i_2" arrivalPos="177.17" arrivalSpeed="0.15" duration="97.00" routeLength="938.99" waitSteps="30" timeLoss="50.00" rerouteNo="0" devices="tripinfo_carIn53:1" vType="default" speedFactor="1.00" vaporized=""/>
    <tripinfo id="h76c1:1" depart="364.00" departLane="1o_0" departPos="397.37" departSpeed="0.00" departDelay="0.00" arrival="495.00" arrivalLane="3i_2" arrivalPos="243.00" arrivalSpeed="0.23" duration="131.00" routeLength="1343.92" waitSteps="43" timeLoss="63.75" rerouteNo="0" devices="tripinfo_h76c1:1" vType="default" speedFactor="1.00" vaporized=""/>
    <tripinfo id="h36c1:1" depart="382.00" departLane="1i_0" departPos="1.33" departSpeed="0.00" departDelay="0.00" arrival="497.00" arrivalLane="4i_2" arrivalPos="151.27" arrivalSpeed="0.12" duration="115.00" routeLength="1137.06" waitSteps="37" timeLoss="58.09" rerouteNo="0" devices="tripinfo_h36c1:1" vType="default" speedFactor="1.00" vaporized=""/>
    <tripinfo id="h339c1:1" depart="389.00" departLane="3o_0" departPos="369.55" departSpeed="0.00" departDelay="0.00" arrival="497.00" arrivalLane="2i_2" arrivalPos="50.06" arrivalSpeed="0.20" duration="108.00" routeLength="1161.10" waitSteps="22" timeLoss="49.89" rerouteNo="0" devices="tripinfo_h339c1:1" vType="default" speedFactor="1.00" vaporized=""/>
    <tripinfo id="h326c1:1" depart="423.00" departLane="3o_0" departPos="349.59" departSpeed="0.00" departDelay="0.00" arrival="498.00" arrivalLane="2o_0" arrivalPos="332.01" arrivalSpeed="0.53" duration="75.00" routeLength="969.54" waitSteps="0" timeLoss="26.49" rerouteNo="0" devices="tripinfo_h326c1:1" vType="default" speedFactor="1.00" vaporized=""/>
    <tripinfo id="carIn172:1" depart="415.00" departLane="3i_0" departPos="243.00" departSpeed="0.00" departDelay="2.00" arrival="499.00" arrivalLane="2i_2" arrivalPos="42.79" arrivalSpeed="0.16" duration="84.00" routeLength="786.91" waitSteps="20" timeLoss="44.60" rerouteNo="0" devices="tripinfo_carIn172:1" vType="default" speedFactor="1.00" vaporized=""/>
    <tripinfo id="carIn9:1" depart="453.00" departLane="3i_0" departPos="243.00" departSpeed="0.00" departDelay="5.00" arrival="500.00" arrivalLane="2o_0" arrivalPos="332.54" arrivalSpeed="0.17" duration="47.00" routeLength="583.19" waitSteps="0" timeLoss="17.82" rerouteNo="0" devices="tripinfo_carIn9:1" vType="default" speedFactor="1.00" vaporized=""/>
    <tripinfo id="h86c2:1" depart="365.00" departLane="1o_0" departPos="443.62" departSpeed="0.00" departDelay="0.00" arrival="501.00" arrivalLane="3i_1" arrivalPos="292.16" arrivalSpeed="0.17" duration="136.00" routeLength="1346.83" waitSteps="49" timeLoss="68.60" rerouteNo="0" devices="tripinfo_h86c2:1" vType="default" speedFactor="1.00" vaporized=""/>
    <tripinfo id="h57c1:1" depart="370.00" departLane="1i_0" departPos="31.53" departSpeed="0.00" departDelay="0.00" arrival="503.00" arrivalLane="3i_2" arrivalPos="319.53" arrivalSpeed="1.04" duration="133.00" routeLength="1292.82" waitSteps="49" timeLoss="68.30" rerouteNo="0" devices="tripinfo_h57c1:1" vType="default" speedFactor="1.00" vaporized=""/>
    <tripinfo id="h113c1:1" depart="391.00" departLane="1o_0" departPos="447.60" departSpeed="0.00" departDelay="1.00" arrival="506.00" arrivalLane="2o_2" arrivalPos="356.39" arrivalSpeed="0.19" duration="115.00" routeLength="911.88" waitSteps="40" timeLoss="69.34" rerouteNo="0" devices="tripinfo_h113c1:1" vType="default" speedFactor="1.00" vaporized=""/>
    <tripinfo id="h9c1:1" depart="404.00" departLane="1i_0" departPos="9.63" departSpeed="0.00" departDelay="0.00" arrival="506.00" arrivalLane="4i_2" arrivalPos="253.16" arrivalSpeed="1.93" duration="102.00" routeLength="1230.65" waitSteps="15" timeLoss="40.42" rerouteNo="0" devices="tripinfo_h9c1:1" vType="default" speedFactor="1.00" vaporized=""/>
    <tripinfo id="h86c1:1" depart="411.00" departLane="1o_0" departPos="443.62" departSpeed="0.00" departDelay="0.00" arrival="506.00" arrivalLane="4i_2" arrivalPos="227.00" arrivalSpeed="3.81" duration="95.00" routeLength="1263.97" waitSteps="9" timeLoss="31.75" rerouteNo="0" devices="tripinfo_h86c1:1" vType="default" speedFactor="1.00" vaporized=""/>
    <tripinfo id="h372c1:1" depart="372.00" departLane="3o_0" departPos="417.12" departSpeed="0.00" departDelay="0.00" arrival="508.00" arrivalLane="4o_1" arrivalPos="459.52" arrivalSpeed="0.13" duration="136.00" routeLength="1045.49" waitSteps="58" timeLoss="83.66" rerouteNo="0" devices="tripinfo_h372c1:1" vType="default" speedFactor="1.00" vaporized=""/>
    <tripinfo id="h329c1:1" depart="389.00" departLane="3o_0" departPos="478.72" departSpeed="0.00" departDelay="0.00" arrival="509.00" arrivalLane="4o_2" arrivalPos="318.11" arrivalSpeed="0.36" duration="120.00" routeLength="842.48" waitSteps="45" timeLoss="77.80" rerouteNo="0" devices="tripinfo_h329c1:1" vType="default" speedFactor="1.00" vaporized=""/>
    <tripinfo id="h34c1:1" depart="437.00" departLane="1i_0" departPos="129.25" departSpeed="0.00" departDelay="13.00" arrival="510.00" arrivalLane="4i_2" arrivalPos="170.41" arrivalSpeed="0.16" duration="73.00" routeLength="1028.28" waitSteps="0" timeLoss="21.56" rerouteNo="0" devices="tripinfo_h34c1:1" vType="default" speedFactor="1.00" vaporized=""/>