<?xml version="1.0" encoding="UTF-8"?>

<!-- generated on 04/04/18 11:54:09 by SUMO Version 0.31.0
<?xml version="1.0" encoding="UTF-8"?>

<configuration xmlns:xsi="http://www.w3.org/2001/XMLSchema-instance" xsi:noNamespaceSchemaLocation="http://sumo.dlr.de/xsd/sumoConfiguration.xsd">

    <input>
        <net-file value="C:\Users\Bryan\Documents\GitHub\core\ts_core\excel_parser/cross.net.xml"/>
        <route-files value="C:\Users\Bryan\Documents\GitHub\core\ts_core\excel_parser/cross.rou.xml"/>
    </input>

    <output>
        <tripinfo-output value="C:\Users\Bryan\Documents\GitHub\core\ts_core\excel_parser/output/2018_04_04T11_54_09_108059/sutripinfo.xml"/>
    </output>

    <time>
        <begin value="0.0"/>
        <end value="3600.0"/>
    </time>

    <traci_server>
        <remote-port value="55934"/>
    </traci_server>

</configuration>
-->

<tripinfos xmlns:xsi="http://www.w3.org/2001/XMLSchema-instance" xsi:noNamespaceSchemaLocation="http://sumo.dlr.de/xsd/tripinfo_file.xsd">
